# vtk DataFile Version 4.2
vtk output
ASCII
DATASET UNSTRUCTURED_GRID
POINTS 42 double
0 0.3 0 0 0.2953125 0 0 0 0 
0 0.0046875 0 0 0.15 0 0 0.159375 0 
0 0.140625 0 0 0.075 0 0 0.084375 0 
0 0.065625 0 0 0.225 0 0 0.234375 0 
0 0.215625 0 0 0.1875 0 0 0.178125 0 
0 0.196875 0 0 0.0375 0 0 0.046875 0 
0 0.028125 0 0 0.2625 0 0 0.253125 0 
0 0.271875 0 0 0.1125 0 0 0.1078125 0 
0 0.1171875 0 0 0.20625 0 0 0.2015625 0 
0 0.28125 0 0 0.2765625 0 0 0.2859375 0 
0 0.01875 0 0 0.009375 0 0 0.09375 0 
0 0.103125 0 0 0.16875 0 0 0.24375 0 
0 0.2484375 0 0 0.13125 0 0 0.121875 0 
0 0.05625 0 0 0.0609375 0 0 0.290625 0 

METADATA
INFORMATION 2
NAME L2_NORM_RANGE LOCATION vtkDataArray
DATA 2 0 0.3 
NAME L2_NORM_FINITE_RANGE LOCATION vtkDataArray
DATA 2 0 0.3 

CELLS 41 123
2 0 1 
2 2 3 
2 4 5 
2 4 6 
2 7 8 
2 7 9 
2 10 11 
2 10 12 
2 13 14 
2 13 15 
2 16 17 
2 16 18 
2 19 20 
2 19 21 
2 22 23 
2 22 24 
2 25 12 
2 25 26 
2 27 28 
2 27 29 
2 30 31 
2 30 18 
2 32 33 
2 32 8 
2 34 14 
2 34 5 
2 35 11 
2 35 36 
2 37 38 
2 37 6 
2 39 17 
2 39 40 
2 20 36 
2 31 3 
2 21 28 
2 33 23 
2 38 24 
2 9 40 
2 15 26 
2 41 1 
2 41 29 

CELL_TYPES 41
3
3
3
3
3
3
3
3
3
3
3
3
3
3
3
3
3
3
3
3
3
3
3
3
3
3
3
3
3
3
3
3
3
3
3
3
3
3
3
3
3

CELL_DATA 41
SCALARS f double
LOOKUP_TABLE default
1 1 1 1 1 1 1 1 1 
1 1 1 1 1 1 1 1 1 
1 1 1 1 1 1 1 1 1 
1 1 1 1 1 1 1 1 1 
1 1 1 1 1 
METADATA
INFORMATION 0

