# vtk DataFile Version 4.2
vtk output
ASCII
DATASET UNSTRUCTURED_GRID
POINTS 51 double
1 0 0 1 0.0046875 0 1 0.3 0 
1 0.2953125 0 1 0.15 0 1 0.159375 0 
1 0.1453125 0 1 0.075 0 1 0.084375 0 
1 0.0703125 0 1 0.225 0 1 0.234375 0 
1 0.2203125 0 1 0.1875 0 1 0.1921875 0 
1 0.1828125 0 1 0.1125 0 1 0.103125 0 
1 0.1171875 0 1 0.0375 0 1 0.046875 0 
1 0.0328125 0 1 0.2625 0 1 0.253125 0 
1 0.2671875 0 1 0.28125 0 1 0.271875 0 
1 0.2859375 0 1 0.01875 0 1 0.009375 0 
1 0.0234375 0 1 0.20625 0 1 0.215625 0 
1 0.2015625 0 1 0.16875 0 1 0.178125 0 
1 0.1640625 0 1 0.05625 0 1 0.0515625 0 
1 0.0609375 0 1 0.13125 0 1 0.140625 0 
1 0.1265625 0 1 0.09375 0 1 0.0890625 0 
1 0.24375 0 1 0.065625 0 1 0.121875 0 
1 0.028125 0 1 0.290625 0 1 0.196875 0 

METADATA
INFORMATION 2
NAME L2_NORM_RANGE LOCATION vtkDataArray
DATA 2 1 1.04403 
NAME L2_NORM_FINITE_RANGE LOCATION vtkDataArray
DATA 2 1 1.04403 

CELLS 50 150
2 0 1 
2 2 3 
2 4 5 
2 4 6 
2 7 8 
2 7 9 
2 10 11 
2 10 12 
2 13 14 
2 13 15 
2 16 17 
2 16 18 
2 19 20 
2 19 21 
2 22 23 
2 22 24 
2 25 26 
2 25 27 
2 28 29 
2 28 30 
2 31 32 
2 31 33 
2 34 35 
2 34 36 
2 37 38 
2 37 39 
2 40 41 
2 40 42 
2 43 17 
2 43 44 
2 45 23 
2 45 11 
2 20 38 
2 46 39 
2 46 9 
2 35 15 
2 32 12 
2 5 36 
2 47 18 
2 47 42 
2 29 1 
2 26 24 
2 41 6 
2 8 44 
2 48 30 
2 48 21 
2 49 27 
2 49 3 
2 50 33 
2 50 14 

CELL_TYPES 50
3
3
3
3
3
3
3
3
3
3
3
3
3
3
3
3
3
3
3
3
3
3
3
3
3
3
3
3
3
3
3
3
3
3
3
3
3
3
3
3
3
3
3
3
3
3
3
3
3
3

CELL_DATA 50
SCALARS f double
LOOKUP_TABLE default
2 2 2 2 2 2 2 2 2 
2 2 2 2 2 2 2 2 2 
2 2 2 2 2 2 2 2 2 
2 2 2 2 2 2 2 2 2 
2 2 2 2 2 2 2 2 2 
2 2 2 2 2 
METADATA
INFORMATION 0

