# vtk DataFile Version 4.2
vtk output
ASCII
DATASET UNSTRUCTURED_GRID
POINTS 354 double
0.425 0 0 0.418359375 0 0 0.4252956987 0.0046999962587 0 
0.4255913974 0.0093999925173 0 0.42647383016 0.014025867027 0 0.42735626292 0.018651741537 0 
0.42881151324 0.023130541494 0 0.43026676356 0.027609341451 0 0.43227188128 0.031870433504 0 
0.434276999 0.036131525558 0 0.43680036221 0.04010770974 0 0.43932372542 0.044083893922 0 
0.44232553918 0.047712463433 0 0.44532735294 0.051341032945 0 0.44876027686 0.054564763076 0 
0.45219320077 0.057788493208 0 0.45600309557 0.06055654381 0 0.45981299038 0.063324594413 0 
0.46393977175 0.065593311674 0 0.46806655313 0.067862028935 0 0.47244513928 0.069595633829 0 
0.47682372542 0.071329238722 0 0.48138506341 0.072500391263 0 0.48594640141 0.073671543805 0 
0.49061855622 0.074261774218 0 0.49529071104 0.074852004632 0 0.5 0.074852004632 0 
0.50470928896 0.074852004632 0 0.50938144378 0.074261774218 0 0.51405359859 0.073671543805 0 
0.51861493659 0.072500391263 0 0.52317627458 0.071329238722 0 0.52755486072 0.069595633829 0 
0.53193344687 0.067862028935 0 0.53606022825 0.065593311674 0 0.54018700962 0.063324594413 0 
0.54399690443 0.06055654381 0 0.54780679923 0.057788493208 0 0.55123972314 0.054564763076 0 
0.55467264706 0.051341032945 0 0.55767446082 0.047712463433 0 0.56067627458 0.044083893922 0 
0.56319963779 0.04010770974 0 0.565723001 0.036131525558 0 0.56772811872 0.031870433504 0 
0.56973323644 0.027609341451 0 0.57118848676 0.023130541494 0 0.57264373708 0.018651741537 0 
0.57352616984 0.014025867027 0 0.5744086026 0.0093999925173 0 0.5747043013 0.0046999962587 0 
0.575 0 0 0.581640625 0 0 0.575 0.3 0 
0.581640625 0.3 0 0.5747043013 0.29530000374 0 0.5744086026 0.29060000748 0 
0.57352616984 0.28597413297 0 0.57264373708 0.28134825846 0 0.57118848676 0.27686945851 0 
0.56973323644 0.27239065855 0 0.56772811872 0.2681295665 0 0.565723001 0.26386847444 0 
0.56319963779 0.25989229026 0 0.56067627458 0.25591610608 0 0.55767446082 0.25228753657 0 
0.55467264706 0.24865896706 0 0.55123972314 0.24543523692 0 0.54780679923 0.24221150679 0 
0.54399690443 0.23944345619 0 0.54018700962 0.23667540559 0 0.53606022825 0.23440668833 0 
0.53193344687 0.23213797107 0 0.52755486072 0.23040436617 0 0.52317627458 0.22867076128 0 
0.51861493659 0.22749960874 0 0.51405359859 0.2263284562 0 0.50938144378 0.22573822578 0 
0.50470928896 0.22514799537 0 0.5 0.22514799537 0 0.49529071104 0.22514799537 0 
0.49061855622 0.22573822578 0 0.48594640141 0.2263284562 0 0.48138506341 0.22749960874 0 
0.47682372542 0.22867076128 0 0.47244513928 0.23040436617 0 0.46806655313 0.23213797107 0 
0.46393977175 0.23440668833 0 0.45981299038 0.23667540559 0 0.45600309557 0.23944345619 0 
0.45219320077 0.24221150679 0 0.44876027686 0.24543523692 0 0.44532735294 0.24865896706 0 
0.44232553918 0.25228753657 0 0.43932372542 0.25591610608 0 0.43680036221 0.25989229026 0 
0.434276999 0.26386847444 0 0.43227188128 0.2681295665 0 0.43026676356 0.27239065855 0 
0.42881151324 0.27686945851 0 0.42735626292 0.28134825846 0 0.42647383016 0.28597413297 0 
0.4255913974 0.29060000748 0 0.4252956987 0.29530000374 0 0.425 0.3 0 
0.418359375 0.3 0 0.2125 0 0 0.205859375 0 0 
0.219140625 0 0 0.2125 0.3 0 0.219140625 0.3 0 
0.205859375 0.3 0 0.7875 0.3 0 0.780859375 0.3 0 
0.794140625 0.3 0 0.7875 0 0 0.780859375 0 0 
0.794140625 0 0 0.89375 0.3 0 0.887109375 0.3 0 
0.900390625 0.3 0 0.10625 0.3 0 0.112890625 0.3 0 
0.099609375 0.3 0 0.31875 0 0 0.312109375 0 0 
0.325390625 0 0 0.31875 0.3 0 0.312109375 0.3 0 
0.325390625 0.3 0 0.68125 0.3 0 0.674609375 0.3 0 
0.687890625 0.3 0 0.68125 0 0 0.674609375 0 0 
0.687890625 0 0 0.89375 0 0 0.887109375 0 0 
0.900390625 0 0 0.10625 0 0 0.112890625 0 0 
0.099609375 0 0 0.053125 0 0 0.059765625 0 0 
0.046484375 0 0 0.946875 0 0 0.940234375 0 0 
0.953515625 0 0 0.946875 0.3 0 0.953515625 0.3 0 
0.940234375 0.3 0 0.053125 0.3 0 0.046484375 0.3 0 
0.059765625 0.3 0 0.840625 0 0 0.847265625 0 0 
0.833984375 0 0 0.159375 0 0 0.166015625 0 0 
0.152734375 0 0 0.371875 0 0 0.365234375 0 0 
0.378515625 0 0 0.628125 0 0 0.634765625 0 0 
0.621484375 0 0 0.371875 0.3 0 0.378515625 0.3 0 
0.365234375 0.3 0 0.628125 0.3 0 0.621484375 0.3 0 
0.634765625 0.3 0 0.734375 0.3 0 0.727734375 0.3 0 
0.741015625 0.3 0 0.734375 0 0 0.741015625 0 0 
0.727734375 0 0 0.840625 0.3 0 0.833984375 0.3 0 
0.847265625 0.3 0 0.159375 0.3 0 0.152734375 0.3 0 
0.166015625 0.3 0 0.265625 0 0 0.272265625 0 0 
0.258984375 0 0 0.265625 0.3 0 0.272265625 0.3 0 
0.258984375 0.3 0 0.7078125 0.3 0 0.714453125 0.3 0 
0.701171875 0.3 0 0.2390625 0.3 0 0.232421875 0.3 0 
0.245703125 0.3 0 0.1328125 0.3 0 0.139453125 0.3 0 
0.126171875 0.3 0 0.0265625 0.3 0 0.019921875 0.3 0 
0.033203125 0.3 0 0.0265625 0 0 0.019921875 0 0 
0.033203125 0 0 0.9734375 0.3 0 0.980078125 0.3 0 
0.966796875 0.3 0 0.6015625 0 0 0.608203125 0 0 
0.594921875 0 0 0.8671875 0 0 0.873828125 0 0 
0.860546875 0 0 0.7078125 0 0 0.701171875 0 0 
0.714453125 0 0 0.1859375 0 0 0.192578125 0 0 
0.179296875 0 0 0.3984375 0 0 0.391796875 0 0 
0.405078125 0 0 0.3984375 0.3 0 0.391796875 0.3 0 
0.405078125 0.3 0 0.6015625 0.3 0 0.608203125 0.3 0 
0.594921875 0.3 0 0.2921875 0 0 0.285546875 0 0 
0.298828125 0 0 0.8671875 0.3 0 0.873828125 0.3 0 
0.860546875 0.3 0 0.1859375 0.3 0 0.192578125 0.3 0 
0.179296875 0.3 0 0.2390625 0 0 0.232421875 0 0 
0.245703125 0 0 0.0796875 0.3 0 0.073046875 0.3 0 
0.086328125 0.3 0 0.0796875 0 0 0.073046875 0 0 
0.086328125 0 0 0.1328125 0 0 0.139453125 0 0 
0.126171875 0 0 0.9203125 0.3 0 0.926953125 0.3 0 
0.913671875 0.3 0 0.9734375 0 0 0.966796875 0 0 
0.980078125 0 0 0.9203125 0 0 0.926953125 0 0 
0.913671875 0 0 0.6546875 0 0 0.661328125 0 0 
0.648046875 0 0 0.3453125 0 0 0.338671875 0 0 
0.351953125 0 0 0.8140625 0.3 0 0.807421875 0.3 0 
0.820703125 0.3 0 0.8140625 0 0 0.820703125 0 0 
0.807421875 0 0 0.7609375 0 0 0.754296875 0 0 
0.767578125 0 0 0.6546875 0.3 0 0.661328125 0.3 0 
0.648046875 0.3 0 0.3453125 0.3 0 0.338671875 0.3 0 
0.351953125 0.3 0 0.2921875 0.3 0 0.298828125 0.3 0 
0.285546875 0.3 0 0.7609375 0.3 0 0.754296875 0.3 0 
0.767578125 0.3 0 0.82734375 0.3 0 0.96015625 0 0 
0.35859375 0 0 0.19921875 0.3 0 0.93359375 0.3 0 
0.88046875 0.3 0 0.98671875 0 0 0.993359375 0 0 
0.01328125 0.3 0 0.006640625 0.3 0 0.03984375 0 0 
0.66796875 0 0 0.80078125 0 0 0.77421875 0.3 0 
0.06640625 0 0 0.22578125 0.3 0 0.98671875 0.3 0 
0.993359375 0.3 0 0.01328125 0 0 0.006640625 0 0 
0.66796875 0.3 0 0.30546875 0.3 0 0.14609375 0.3 0 
0.58828125 0.3 0 0.41171875 0 0 0.41171875 0.3 0 
0.96015625 0.3 0 0.03984375 0.3 0 0.69453125 0.3 0 
0.27890625 0 0 0.22578125 0 0 0.30546875 0 0 
0.69453125 0 0 0.74765625 0.3 0 0.14609375 0 0 
0.09296875 0 0 0.85390625 0.3 0 0.11953125 0 0 
0.06640625 0.3 0 0.58828125 0 0 0.38515625 0.3 0 
0.38515625 0 0 0.88046875 0 0 0.90703125 0 0 
0.72109375 0 0 0.85390625 0 0 0.82734375 0 0 
0.72109375 0.3 0 0.74765625 0 0 0.90703125 0.3 0 
0.19921875 0 0 0.11953125 0.3 0 0.09296875 0.3 0 
0.33203125 0 0 0.25234375 0 0 0.25234375 0.3 0 
0.33203125 0.3 0 0.17265625 0.3 0 0.27890625 0.3 0 
0.35859375 0.3 0 0.17265625 0 0 0.61484375 0 0 
0.93359375 0 0 0.77421875 0 0 0.64140625 0.3 0 
0.64140625 0 0 0.80078125 0.3 0 0.61484375 0.3 0 

METADATA
INFORMATION 2
NAME L2_NORM_RANGE LOCATION vtkDataArray
DATA 2 0.00664062 1.03767 
NAME L2_NORM_FINITE_RANGE LOCATION vtkDataArray
DATA 2 0.00664062 1.03767 

CELLS 352 1056
2 0 1 
2 0 2 
2 3 2 
2 3 4 
2 5 4 
2 5 6 
2 7 6 
2 7 8 
2 9 10 
2 9 8 
2 11 10 
2 11 12 
2 13 14 
2 13 12 
2 15 14 
2 15 16 
2 17 18 
2 17 16 
2 19 18 
2 19 20 
2 21 20 
2 21 22 
2 23 22 
2 23 24 
2 25 24 
2 25 26 
2 27 28 
2 27 26 
2 29 30 
2 29 28 
2 31 32 
2 31 30 
2 33 32 
2 33 34 
2 35 34 
2 35 36 
2 37 36 
2 37 38 
2 39 40 
2 39 38 
2 41 40 
2 41 42 
2 43 44 
2 43 42 
2 45 44 
2 45 46 
2 47 48 
2 47 46 
2 49 50 
2 49 48 
2 51 52 
2 51 50 
2 53 54 
2 53 55 
2 56 55 
2 56 57 
2 58 57 
2 58 59 
2 60 61 
2 60 59 
2 62 63 
2 62 61 
2 64 63 
2 64 65 
2 66 67 
2 66 65 
2 68 67 
2 68 69 
2 70 71 
2 70 69 
2 72 73 
2 72 71 
2 74 73 
2 74 75 
2 76 75 
2 76 77 
2 78 79 
2 78 77 
2 80 79 
2 80 81 
2 82 83 
2 82 81 
2 84 85 
2 84 83 
2 86 85 
2 86 87 
2 88 89 
2 88 87 
2 90 91 
2 90 89 
2 92 91 
2 92 93 
2 94 93 
2 94 95 
2 96 97 
2 96 95 
2 98 99 
2 98 97 
2 100 99 
2 100 101 
2 102 103 
2 102 101 
2 104 105 
2 104 103 
2 106 107 
2 106 108 
2 109 110 
2 109 111 
2 112 113 
2 112 114 
2 115 116 
2 115 117 
2 118 119 
2 118 120 
2 121 122 
2 121 123 
2 124 125 
2 124 126 
2 127 128 
2 127 129 
2 130 131 
2 130 132 
2 133 134 
2 133 135 
2 136 137 
2 136 138 
2 139 140 
2 139 141 
2 142 143 
2 142 144 
2 145 146 
2 145 147 
2 148 149 
2 148 150 
2 151 152 
2 151 153 
2 154 155 
2 154 156 
2 157 158 
2 157 159 
2 160 161 
2 160 162 
2 163 164 
2 163 165 
2 166 167 
2 166 168 
2 169 170 
2 169 171 
2 172 173 
2 172 174 
2 175 176 
2 175 177 
2 178 179 
2 178 180 
2 181 182 
2 181 183 
2 184 185 
2 184 186 
2 187 188 
2 187 189 
2 190 191 
2 190 192 
2 193 194 
2 193 195 
2 196 197 
2 196 198 
2 199 200 
2 199 201 
2 202 203 
2 202 204 
2 205 206 
2 205 207 
2 208 209 
2 208 210 
2 211 212 
2 211 213 
2 214 215 
2 214 216 
2 217 218 
2 217 219 
2 220 221 
2 220 222 
2 223 224 
2 223 225 
2 226 227 
2 226 228 
2 229 230 
2 229 231 
2 232 233 
2 232 234 
2 235 236 
2 235 237 
2 238 239 
2 238 240 
2 241 242 
2 241 243 
2 244 245 
2 244 246 
2 247 248 
2 247 249 
2 250 251 
2 250 252 
2 253 254 
2 253 255 
2 256 257 
2 256 258 
2 259 260 
2 259 261 
2 262 263 
2 262 264 
2 265 266 
2 265 267 
2 268 269 
2 268 270 
2 271 272 
2 271 273 
2 274 275 
2 274 276 
2 277 278 
2 277 279 
2 280 281 
2 280 282 
2 283 284 
2 283 285 
2 286 179 
2 286 267 
2 287 254 
2 287 147 
2 288 161 
2 288 264 
2 289 236 
2 289 111 
2 290 251 
2 290 150 
2 291 233 
2 291 119 
2 292 293 
2 292 255 
2 294 295 
2 294 200 
2 296 144 
2 296 204 
2 297 134 
2 297 260 
2 298 117 
2 298 270 
2 299 113 
2 299 285 
2 300 245 
2 300 143 
2 301 110 
2 301 194 
2 302 303 
2 302 206 
2 304 305 
2 304 203 
2 306 131 
2 306 275 
2 307 281 
2 307 128 
2 308 197 
2 308 182 
2 309 54 
2 309 228 
2 310 222 
2 310 1 
2 311 105 
2 311 225 
2 312 149 
2 312 207 
2 313 152 
2 313 201 
2 314 132 
2 314 192 
2 315 185 
2 315 230 
2 316 239 
2 316 108 
2 317 125 
2 317 231 
2 318 135 
2 318 215 
2 319 174 
2 319 284 
2 320 248 
2 320 159 
2 321 141 
2 321 246 
2 322 234 
2 322 180 
2 323 249 
2 323 140 
2 324 242 
2 324 153 
2 325 210 
2 325 52 
2 326 224 
2 326 167 
2 327 221 
2 327 162 
2 328 212 
2 328 137 
2 329 258 
2 329 138 
2 330 177 
2 330 216 
2 331 155 
2 331 213 
2 332 269 
2 332 156 
2 333 173 
2 333 191 
2 334 272 
2 334 176 
2 335 252 
2 335 120 
2 336 107 
2 336 218 
2 337 122 
2 337 198 
2 338 243 
2 338 123 
2 339 263 
2 339 126 
2 340 186 
2 340 240 
2 341 189 
2 341 195 
2 342 129 
2 342 278 
2 343 237 
2 343 183 
2 344 188 
2 344 282 
2 345 168 
2 345 279 
2 346 219 
2 346 158 
2 347 209 
2 347 165 
2 348 257 
2 348 146 
2 349 116 
2 349 273 
2 350 171 
2 350 276 
2 351 164 
2 351 261 
2 352 266 
2 352 114 
2 353 227 
2 353 170 

CELL_TYPES 352
3
3
3
3
3
3
3
3
3
3
3
3
3
3
3
3
3
3
3
3
3
3
3
3
3
3
3
3
3
3
3
3
3
3
3
3
3
3
3
3
3
3
3
3
3
3
3
3
3
3
3
3
3
3
3
3
3
3
3
3
3
3
3
3
3
3
3
3
3
3
3
3
3
3
3
3
3
3
3
3
3
3
3
3
3
3
3
3
3
3
3
3
3
3
3
3
3
3
3
3
3
3
3
3
3
3
3
3
3
3
3
3
3
3
3
3
3
3
3
3
3
3
3
3
3
3
3
3
3
3
3
3
3
3
3
3
3
3
3
3
3
3
3
3
3
3
3
3
3
3
3
3
3
3
3
3
3
3
3
3
3
3
3
3
3
3
3
3
3
3
3
3
3
3
3
3
3
3
3
3
3
3
3
3
3
3
3
3
3
3
3
3
3
3
3
3
3
3
3
3
3
3
3
3
3
3
3
3
3
3
3
3
3
3
3
3
3
3
3
3
3
3
3
3
3
3
3
3
3
3
3
3
3
3
3
3
3
3
3
3
3
3
3
3
3
3
3
3
3
3
3
3
3
3
3
3
3
3
3
3
3
3
3
3
3
3
3
3
3
3
3
3
3
3
3
3
3
3
3
3
3
3
3
3
3
3
3
3
3
3
3
3
3
3
3
3
3
3
3
3
3
3
3
3
3
3
3
3
3
3
3
3
3
3
3
3
3
3
3
3
3
3
3
3
3
3
3
3
3
3
3
3
3
3
3
3
3
3
3
3
3
3
3
3
3
3
3
3
3
3
3
3

CELL_DATA 352
SCALARS f double
LOOKUP_TABLE default
3 3 3 3 3 3 3 3 3 
3 3 3 3 3 3 3 3 3 
3 3 3 3 3 3 3 3 3 
3 3 3 3 3 3 3 3 3 
3 3 3 3 3 3 3 3 3 
3 3 3 3 3 3 3 3 3 
3 3 3 3 3 3 3 3 3 
3 3 3 3 3 3 3 3 3 
3 3 3 3 3 3 3 3 3 
3 3 3 3 3 3 3 3 3 
3 3 3 3 3 3 3 3 3 
3 3 3 3 3 3 3 3 3 
3 3 3 3 3 3 3 3 3 
3 3 3 3 3 3 3 3 3 
3 3 3 3 3 3 3 3 3 
3 3 3 3 3 3 3 3 3 
3 3 3 3 3 3 3 3 3 
3 3 3 3 3 3 3 3 3 
3 3 3 3 3 3 3 3 3 
3 3 3 3 3 3 3 3 3 
3 3 3 3 3 3 3 3 3 
3 3 3 3 3 3 3 3 3 
3 3 3 3 3 3 3 3 3 
3 3 3 3 3 3 3 3 3 
3 3 3 3 3 3 3 3 3 
3 3 3 3 3 3 3 3 3 
3 3 3 3 3 3 3 3 3 
3 3 3 3 3 3 3 3 3 
3 3 3 3 3 3 3 3 3 
3 3 3 3 3 3 3 3 3 
3 3 3 3 3 3 3 3 3 
3 3 3 3 3 3 3 3 3 
3 3 3 3 3 3 3 3 3 
3 3 3 3 3 3 3 3 3 
3 3 3 3 3 3 3 3 3 
3 3 3 3 3 3 3 3 3 
3 3 3 3 3 3 3 3 3 
3 3 3 3 3 3 3 3 3 
3 3 3 3 3 3 3 3 3 
3 
METADATA
INFORMATION 0

